11
Properties=species:S:1:pos:R:3:forces:R:3 energy=-8748.10136074836 pbc="F F F"
N        1.33683280      -1.06497270      -0.82809459       0.03109148      -0.01212190       0.00520048
C        0.43043671      -0.38336413      -0.12968885       0.09059672      -0.01431140       0.04943702
C       -0.19664998      -1.28309484       0.78585909      -0.06065487       0.03455926      -0.02957671
O       -1.04890745       0.15975073      -0.76625194      -0.09092949       0.00140612       0.03636602
C       -0.66641323       1.36679948      -0.18210609      -0.01818332      -0.01705182      -0.00117717
O        0.62113591       0.94311713       0.29950758      -0.00006528      -0.00721537      -0.00743992
H        2.05742492      -0.39375834      -1.13573477       0.04139905       0.00231797      -0.00646471
H       -0.40613992      -2.30184499       0.44941912      -0.01209623       0.01007220      -0.03359535
H       -0.42976520      -0.97981937       1.81424194       0.02097217      -0.01015447       0.00030510
H       -0.54692317       2.19605779      -0.90696496      -0.01538232      -0.01860034      -0.01748408
H       -1.32658154       1.69146476       0.64756240       0.01325209       0.03109976       0.00442932
